210
Lattice="14.304134368896484 -0.5396892428398132 0.22070690989494324 0.0 11.961631774902344 -7.2748918533325195 0.0 0.0 14.34623908996582" Properties=species:S:1:pos:R:3:forces:R:3 geom_id=542915363 energy=-1401.0025634765625 pbc="T T T"
Al       6.68594503       9.53215981       8.38801861       0.46454692      -0.74538177      -0.17281444
Al       1.96581531       5.26008940       1.07442451      -4.35985613       1.83866382       1.09376848
Al       2.23167348      10.80561447       0.91725683      -4.30751514      -0.65511727       1.52414417
Al      11.35053539       6.14624405       8.52867508      -1.36205828       1.07909989       2.67792439
Al       0.29744819       6.96327543       5.11356068       0.95952147      -0.67043513       0.97193670
Al       5.11407137       5.40757179      -1.89113235       2.29392290      -1.33203685       0.60901386
C        8.33203506       0.69992065       6.37291336      -4.29525948       1.54341257       0.27504331
C        8.89938545       2.04199672       8.33534527      -1.15730929       6.06473780      -2.44106030
C        6.48863983       2.02401280       7.70365000      -0.33688638      -0.53625560      -2.32604837
C        6.14464998       3.48638821       7.92773628       0.34251502       1.31751943      -3.16488528
C        4.65039396       3.93106604       7.54132223       1.00629461      -3.24766350       0.17605779
C        4.46419334       6.28089571       6.91722965       0.86624289      -0.95841932       4.41695452
C        3.72416401       4.67350674       5.36296940       0.07452099      -2.11223841       0.92893547
C        6.08098698       4.84789324       5.82252502       1.45688868      -0.81065440      -0.63217396
C        7.11300945       4.29301977       6.85198975      -2.15739751      -1.39959538       0.38635048
C        8.10229111       3.17049885       6.37614536      -2.97696209       0.83510542      -1.68732464
C       12.74578094      10.09768295      -0.93283218       4.04586363      -1.57577169      -3.02842951
C       13.89526081       7.99521732      -0.48876569       4.68175793       3.11986208       0.65859240
C       11.84056473       8.02218056      -1.61232877      -1.52668571      -0.37837261       0.25439560
C       11.11165905       6.85864305      -0.95237285      -0.18467024      -0.67776680       0.53922260
C        9.61742401       7.03357172      -1.11517608       0.79812354       0.17843433      -0.07453562
C        8.43084621       5.26676798       0.10331362       3.72583079      -1.30541849       0.79026860
C        7.99325562       7.56667614       0.51396525      -2.32525635       2.71920967       1.43929219
C       10.13730621       6.74171591       1.32242906      -0.64830750       0.04741742       0.45667717
C       11.36701393       7.05850792       0.55826497       0.56125575       1.92184579       0.19243294
C       11.76622105       8.60223103       0.61323333      -1.43210375      -1.25535357       2.24182463
C       13.59646702       0.23694487      -2.78736448      -2.62205529       2.75097251      -2.27632642
C       13.20168209      -2.11509824      -2.06639242      -0.28841180       0.46471655      -1.40410626
C       13.51867580      -0.16632320      -0.33865914       0.29947752      -1.70043302      -1.01983237
C        0.21145439      11.48236656       7.32698011       1.32078516       0.48048267       0.71447384
C        0.95702720      12.23570824       8.48712349      -0.24490862      -1.66661179      -1.58210075
C        3.27480006      12.47619915       9.12894154       1.51857376       3.54515839      -2.34349298
C        2.38870740      14.20446014       7.67396832      -0.86876041       4.43064928      -0.17946219
C        2.67593288      11.99632549       6.66586208      -0.63492024      -0.98109913       2.68487358
C        1.50490332      -0.84528548      13.66335487      -2.53710866      -0.00732467      -1.25946653
C        0.97637689      -0.44720927      -2.08735490       1.59465802      -0.73654944      -0.01906546
H        8.55125999      -0.05532858       7.05155420       0.56255841      -1.51303363       0.90481973
H        7.47068834       0.49399573       5.71394682       0.03212834      -0.47482237       0.46899220
H        9.02505207       1.03669643       5.72527647       2.75530434       0.60585010      -1.70287824
H        9.25335121       1.21924222       8.77967739      -0.02648531      -3.35402966       1.85472023
H        9.78551197       2.50531149       7.89526558      -0.05879852      -0.06936146       0.01814429
H        8.49495125       2.92109132       8.93116283       0.50797719      -1.43417549       0.17350143
H        6.50161314       1.57340693       8.67574310      -0.36802912      -0.86014134       0.03964106
H        5.87360334       1.52281141       6.87315321       0.48982763       0.33382708       1.41483021
H        6.53390694       3.65361881       8.87795639      -0.10126761       1.20049345       2.12019849
H        4.01837063       4.37845373       8.29581070      -0.12551066      -0.28881407       0.64972985
H        4.22336006       2.93968010       7.11788177       0.00719222       1.62268078       0.70069790
H        5.02783728       6.48040247       7.91146421      -0.51281381      -0.29320872      -1.51029694
H        3.44397593       6.35438728       7.15821695      -1.73075283      -0.11149934       0.59824646
H        4.61602974       7.07508898       6.28818560       1.05945289       1.52745998      -2.37154341
H        4.11651754       5.18895292       4.57612133       0.21244927       2.27486396      -2.37674594
H        3.71239305       3.66664958       4.97670698       0.24617161      -0.97839051       0.33208856
H        2.75639963       4.88009977       5.71224642      -1.49067605       0.78340042       0.18841177
H        6.06135082       4.18118143       4.97569466      -0.39341322      -0.73998946      -0.50015676
H        6.34699059       5.80766010       5.33143330      -0.23322964      -0.06129200       0.73070085
H        7.54362965       5.19004393       7.22638226       1.04580367       0.41947040       1.11500585
H        9.08839130       3.53192401       6.38871050       1.46218109       0.18502800      -0.39091188
H        7.69733763       2.83577919       5.39352989       0.78545392       0.53252941      -0.10665981
H       13.38951588      10.64692974      -0.27858898       0.65970469       0.06904776       0.60022843
H       13.19785976      10.09840870      -2.03509521      -0.62938613       0.02133310       2.24075913
H       11.85416698      10.58884525      -1.01442015      -2.78006411       0.53445661       0.12744053
H       14.58886623       8.43214417       0.31132370      -1.08785582      -0.11858331      -0.60498500
H       14.04222965       6.99578333      -0.30829233      -0.90688342      -2.88487124       0.10806385
H       14.44686699       8.28637218      -1.42198682      -0.63964772      -0.51167375       0.69178069
H       12.46704388       7.79442263      -2.43066835       0.71519589      -0.20306057      -1.15916133
H       11.07584476       8.77907372      -1.85966849       0.35240370      -0.21910369      -0.47002009
H       11.25582790       5.80528927      -1.26566362       1.02181888       0.50682503      -0.10193669
H        9.32409763       6.35325146      -1.90097570      -0.85558337      -0.50210410      -0.04090540
H        9.32960224       8.03502464      -1.50750840      -0.07133976      -0.30513206       0.91353971
H        9.16272545       4.52926874      -0.42626098      -0.88734478       1.49207199       0.86638796
H        7.60170412       5.43149900      -0.48614016      -2.05746818      -0.07730582      -1.12442815
H        8.23708725       4.84462452       1.10710156      -0.07813410       0.61340719      -0.52713871
H        7.08202124       7.15855885       0.90547609      -0.43005434      -0.95003092      -0.10394968
H        8.22396374       8.26038647       1.34612393       0.44169289       0.32289177      -0.82031506
H        7.74111938       8.02618027      -0.43177512      -0.58804262       0.68214375       0.13727751
H        9.91194630       7.52286863       2.05535293      -0.27498347       0.57095909      -0.34548193
H       10.09717560       5.91542864       2.03012562       0.31796259      -1.01638818      -0.63002592
H       12.27914333       6.66442823       0.96374381       0.36306608      -1.27104640       0.06863531
H       12.33650494       8.82583618       1.54157150      -0.32046658       0.03628091      -0.39706832
H       10.87377071       9.31743336       0.54396862       1.18063366      -0.80601716      -0.22607179
H       12.56497097       0.31679040      -3.22218299       0.87642634      -0.62787652       1.19355857
H       13.78936672       1.27590561      -2.52135563       0.29754442       0.01787832       1.14126861
H       -0.14266834       0.74246579      -3.91768861       0.90270251      -1.34254324      -0.21031691
H       13.88419437      -2.75732303      12.84056950      -0.56817621      -0.71515459      -0.63614005
H       12.13077450      -2.27814245      -1.91119683       0.30812618       0.65555817       1.07451296
H       13.15608311      -2.18125176      11.14037895       1.11226344      -0.36775583       1.25728989
H       12.44081688      -0.35351416      -0.27088553       0.05390674      -0.28744444       0.67988020
H       -0.68177307       1.47498524      -0.48214990       0.56589866      -0.43948659      -0.49686500
H       14.09908485       9.95019436       7.89743805       0.13472825       1.12891459      -0.13565943
H        1.28188562      11.38334846       9.10254002      -0.26782265       0.60518783       0.46542606
H        0.42310548      13.02168846      -5.33638811      -0.00545415       0.14401877       0.24631953
H        3.43822908      11.46033859       9.19945526       0.18102588      -2.44452620       0.10856033
H        2.82552123      12.90692520      10.01575565       0.00387866       0.26561832       0.18655570
H        4.29489136      12.99785805       8.82530212      -2.03419900      -1.06634331       0.85968047
H        3.19010997      14.72214985       8.27098179      -0.05964221      -0.94891334      -0.80246508
H        2.47460556      14.51333332       6.58658838       0.12582028      -0.71094948       1.03985345
H        1.54543769      14.92745399       8.06932354       0.47710273      -2.21924591      -0.40113989
H        2.85055327       0.73227400      13.18738079       0.40451908       1.21235025      -1.26764035
H        3.57426214      11.44620037       6.87272453       0.71792811      -0.34638450       0.22153661
H        1.69456065      -1.91890049      13.75399208       0.18376119      -0.00523475      -0.01166610
H        1.23718822      -1.17594671      -2.90283203      -0.50450379       0.43117952       0.52327192
H        1.43896830       0.50760657      -2.37776685      -0.22899748      -0.08358367       0.00383512
N        7.95775032       1.92964625       7.15404463      -0.54516965       0.16380282       2.80803299
N        4.70803452       4.89073992       6.44154310       1.25053942       1.41129434      -1.25481188
N       12.64031601       8.63928032      -0.52891785      -1.66714036       2.77957892      -1.72208047
N        9.03217411       6.65686274       0.25487286       1.28160954      -1.68363464      -0.71613246
N       13.81837368      -0.75630128      -1.78347147       0.14593063       0.88425112       0.24000856
N        2.28163958      12.78928852       7.92834330       1.10482371      -1.22051954       1.80043292
O        6.23079729      11.09015465      -5.36535788       0.20017511       0.39078665      -0.69851494
O        1.75556040       6.85308599       1.81898534      -0.11356072      -0.90469837      -0.47708926
O       11.35663605       2.20563889       9.14072037       0.74040085      -0.04551594       0.77845770
O        6.67159033       2.20932603      -0.05832433      -1.00519693      -1.51898551      -2.76914263
O        1.71863973      10.64480495      -0.72317982      -0.42164847      -0.14984305       1.04508746
O       10.92873859       6.01098537       6.93154764      -1.69668305      -1.55830908      -0.65657401
O        6.82279253      10.87518692       4.62495375       0.00913374      -0.32166243      -1.56421149
O        1.46060121       6.88418198      -2.48897123      -1.40969563       2.94327283      -1.50571632
O       10.81285191       2.45647883       4.98308516       0.13602750      -0.50115561       1.25088155
O       10.65419006       0.45287865      12.48010826      -2.49347329      -0.23691571      -1.14305794
O        5.47019148       9.13766670      -2.40370083      -0.59292626      -1.52362907      -0.59593427
O        0.70094216       5.36589336       4.61570454       0.22386087      -1.28461945      -0.65593541
O       10.34165668       9.59151649       6.86820602      -0.36222547       0.10372987      -0.95890427
O        5.65590477       5.78612471      -0.25031567      -0.66059816       0.28734097       1.39253891
O        0.88564050       1.80325687       6.55848122      -0.08183335      -0.15742102       1.23492193
O       10.20751572       0.93049234       2.30812621       0.19937392      -0.10278152      -0.84729785
O        5.08529663       9.09228516       1.53867662       0.79877973      -0.69914305      -0.54841238
O        0.92737031       5.31731415       8.80856133      -0.04834661      -1.03666449      -0.42636585
O        5.69149685       8.49964237       9.35439873      -0.26568297      -1.14004910       0.57899976
O        0.94973183       4.26615334       2.16075611       0.36981079       0.80223560      -2.00470161
O       11.28104305      -0.34705812       9.93538094      -0.29205015       1.10383987      -2.10789084
O        5.98205376       4.19417048       1.87229097       1.15010548      -1.82847774      -0.70332897
O        1.36171424       0.27733380       8.89187336       1.04404855      -1.02042973      -0.89923912
O       10.71371365       7.90231180       8.83190918       1.02023554      -1.84298229       0.29037669
O        6.44752169      11.40116119       1.72445679       1.48941422       1.22026432       4.41313553
O        0.96853048       7.79751682       9.22381496       0.27965301       1.02881145       1.21414018
O       10.71267700       3.36483359       2.45553517       1.53258443       1.58717036       1.05912352
O        6.02471304      11.75196266      -2.79004931      -1.07921696      -0.13090189       0.88783395
O        0.89778179       8.15500355       4.04204130      -0.09530488       0.27004981       0.92554861
O       10.94231796       2.89669871      11.73657417       1.33659625       1.45777440      -1.75888646
O        5.96976042       8.48664951       4.07222605      -0.95972311      -1.00843668      -1.85926807
O        1.28815794       4.41672468      11.16525841       0.68211472      -0.00443574       2.01526952
O       10.60835457      -0.05094202       4.63047361       1.05876720      -0.45749301       1.31337523
O        6.10839844       3.65770268      -2.05335927      -1.65273285       2.75107336      -1.09451318
O        1.01772225      12.06188869      -2.77270436       1.09242368      -1.72492945      -0.65564811
O       10.61487961       7.62608767       4.82721567       0.33823574      -2.32279968       1.45429695
O        6.22904253       9.54095554       6.65692186      -0.47724995      -0.72705668       0.91610372
O        1.37334907       5.06516123      -0.54834425      -0.42925233       0.17508431      -0.27513382
O       11.16819286       0.62491542       7.09016418       0.06019499       0.31788972      -0.23406480
O        6.22760344       1.59747458       2.61125755       1.35067832       2.58021140      -1.63586497
O        1.81895816       9.42261028       1.92372096      -0.14698689       0.55326414      -0.30479857
O       10.81466866       4.55485106       9.51030636       0.47899213       2.52646017      -0.05535590
O        6.86540890       1.21579683      11.19316006      -1.39847934       4.64345980       2.28485584
O        1.58371043       9.42686367      -3.00196528      -0.72616142       0.87987804      -0.92272866
O       10.94891548       5.03061295       4.28796768      -0.45038900      -0.47924432       0.96350330
O       10.70199680       2.34768200      -0.01225577      -1.46837842      -0.12850235       2.15070438
O        5.92364216      10.73116112      -0.44653490      -2.68550134      -0.43533933       0.50135261
O        0.91257870       6.89753151       6.82071924       0.65635103       1.38556552      -4.43611574
O       10.20641422       9.86710072       4.18081713      -0.34592491       0.36032352       1.69660246
O        5.68627787       6.57414961      -3.01502252       0.55795461       0.35507011      -0.45632970
O        0.83331549       2.69284964       4.05456305      -0.59198171      -1.32994819       1.48726356
O       10.54260826      10.41259003      -4.88539028      -0.02607707       1.11871028       1.10497332
O        5.11931133       6.54127550       2.45679903       1.28579319       0.79724586      -0.30232677
O        0.99731916       2.72968698       9.22237587      -0.51595831       2.15066123       0.26655492
O        8.38111305       9.03419304       8.74347401      -0.13653219       1.19572294      -1.05885231
O        3.54484749       4.99950361       1.10691929       3.84656286      -1.33033466       0.32318321
O       13.34940910       0.55170512       8.56459999       0.65362322       0.38772517      -0.48640779
O        8.42244530       2.86478972       1.64724839      -0.27299541      -0.56928748      -0.25839072
O        3.77887344      11.26534462       1.09131229       2.54458070       1.66382897       0.48939547
O       13.00842571       6.02251720       8.77305317       1.98440552       0.53032678      -0.48500264
O        8.73611069      -0.33596522      10.26113892      -0.49160847       0.63587004       0.53500611
O        3.42573380       7.85739136      -3.89081335       0.75177962       0.16720134       0.02363155
O       12.97755432       3.28621292       3.72843528      -0.27962527       0.51982296       0.10366916
O        8.24957180      -0.30426839       3.51529765       2.02725244       0.30695242      -0.42518434
O        3.47638321       8.19104290       3.50652742      -0.41195139      -0.10990373      -0.25962946
O       13.23597336       3.51628923      10.52589512      -0.77483016       0.14717902       0.11564614
O        8.24520206       8.59887695       5.36761856      -1.52774096      -0.19265102      -0.09643168
O        3.49340844       5.34607601      -2.16166997      -0.96861315      -0.82483596       0.13459216
O       13.02936077       0.77972758       5.24699879      -0.59336877       0.01604433      -0.19285911
O        8.57338715       2.48021960      12.61921024       1.53362346      -0.40228266       0.41225937
O        3.64623451      11.05742645      -2.35154247      -1.83762944       0.39896193      -0.12812483
O       12.94761658       6.42556953       5.21356058      -3.82622743       0.00757447       0.64750332
Si      11.76561451       0.72873318       8.66054344       0.33630380      -0.50733483       0.86101782
Si       6.76219368       2.77213502       1.38429582       0.18899749      -0.20724770       4.84393215
Si       7.07146358      -0.16876389      10.53579140       2.13293719      -2.71115518       0.54629987
Si       1.79387403       7.96689558      -3.72595167       2.00964928      -0.88314080       0.81805021
Si      11.41555882       3.50009418       3.92484784       0.03036002       2.67152214      -1.75802696
Si       6.73230267       0.10639865       3.04785609      -1.18459284      -1.38475049       0.61918271
Si       1.91991699       8.05270958       2.83615637       1.08135378       2.07241273      -1.61101711
Si      11.67553329       3.41849756      10.23332119      -3.06896400      -1.10034907       0.63660252
Si       6.76861954       9.33302879       5.17874956       0.28742051       0.57405293       0.76815295
Si       1.91447198       5.45201683      -2.01049685       0.03606007      -2.49922562      -0.54268551
Si      11.47220802       1.06120753       5.48138523      -0.68155712      -2.13412595       1.58366728
Si       6.97038698       2.44011140      12.64257240      -0.07625890      -2.05098486      -1.21012020
Si       2.00332904      10.81155491      -2.25547266       0.49830529      -0.29474658       0.43930736
Si      11.31564426       6.15900469       5.44170761       2.99916863       2.95518112      -3.09790874
Si      10.14130497       2.04615641      12.83851814       0.78985065      -0.64567834      -1.52243686
Si       5.12538528      10.61454105      -1.90446305       3.01526809       1.34179068      -1.25439620
Si       9.79209709       8.85194683       5.50566626       1.94584739       1.01976275      -2.20199633
Si       0.32990783       1.42624319       5.05586767       1.93023860       3.80516410      -0.38512206
Si       9.87252998      -0.32883337       3.25049901      -1.31647325      -0.40545455      -1.68976068
Si       4.91221428       8.12227631       2.76405883      -0.26865560      -1.00186419       4.54942751
Si       0.45007479       4.19646168       9.84712696       2.34042907      -1.12579286      -0.52883697
Si      10.12687111      -0.51620424      11.14994335       0.53080142       0.20873840      -1.19004655
Si       5.11277580       7.97456694      -3.57113481      -1.11093843       0.71921104      -1.13172340
Si       0.26603016       4.23958683       3.56877184       1.11673391      -1.97522569       1.43936920
Si       9.98934078       2.30747890       1.57138562      -1.36018264       0.36511075      -2.38607430
Si       5.19034433      10.62618446       1.13474309       1.52591002       0.33029765      -4.21234512
Si       0.29217705       6.67544746       8.18050289      -1.74138427      -0.12684605       4.39112425
Si       9.97305965       9.28689098       8.44136333      -1.43772852      -3.43910861       1.25626230
Si       5.06282759       5.45837116       1.26699901      -0.08048144      -1.55572319      -2.33708858
Si       0.69594187       1.54501832       8.21247387      -1.85011446      -1.79597890      -0.92868996
210
Lattice="13.60474681854248 0.32586249709129333 0.1012580394744873 -6.518370628356934 11.461628913879395 -0.17791296541690826 0.10469041019678116 -0.1510598063468933 15.219111442565918" Properties=species:S:1:pos:R:3:forces:R:3 geom_id=536656235 energy=-1397.9801025390625 pbc="T T T"
Al       5.78565359       6.36130857      12.71210098       3.12405753       1.28838408      -0.20653124
Al       5.74575424       9.00623322       7.66991043      -2.26904774       1.08764756      -2.20626569
Al      10.46967793       3.93351722      12.93694305      -1.35618162      -0.10502268      -3.37517238
Al       2.10580111      10.78485107       2.36451197       1.31545508       0.20334828      -0.30070835
Al       8.84850883       6.91294718       9.65633678       5.49355888       0.22267886       2.13411069
Al      -0.96052212      10.01659393      14.50276375       1.40757811       2.35252047      -2.56304383
C        6.47448063       2.45631957       0.68636465      -4.15161180      -1.62763035       2.21660089
C        5.74332333       4.74314880       0.93038738      -2.94903111       0.25583410       3.86843801
C        7.76672268       4.09379435       1.95686519       4.59413147       1.01840150      -3.14266109
C        7.68332148       4.98483562       3.28049397       3.68678308      -0.23143835      -5.12360477
C        8.75550175       4.39293194       4.16278839      -1.87564969       4.42764187       2.18342471
C        8.07193756       6.06105185       5.99928617      -0.98358071       1.59973776      -3.99218965
C        8.71115875       3.89955044       6.63630342       1.04383326      -2.21391559      -1.62761545
C        6.76419163       4.18754625       5.28208399      -6.73823261      -2.02662635       0.74635708
C        6.41588831       4.64496899       3.83868575      -2.82989073      -3.55086112       1.21230078
C        5.92719078       3.32124662       3.05359340      -4.01535702       2.52135396      -1.86386621
C       -1.28893423       8.46602154      10.38885498       4.08677387      -1.29942691       5.17191458
C       -0.70251399       6.46529770      11.81016827       3.00133801       0.64165390      -0.32620373
C        1.26134121       7.56770277      10.60902500      -4.12440443       4.49638033      -4.48676252
C        1.65568924       7.63515234       9.03852272      -1.78864121       4.16085863       1.60630298
C        1.66915619       9.10710049       8.37674522      -5.86527252      -1.36270607       1.46435678
C        2.34313774       8.32937908       6.10919333       1.01499689      -1.97874367       4.58746243
C        0.61284858      10.11599445       6.27780485      -1.78595662      -1.32084143       2.04830885
C        0.11865819       7.77545023       7.09996367       0.65320098       4.71788692       7.21011400
C        0.60155821       6.96252298       8.23646832      -0.25161958      -4.18297100       1.00064313
C       -0.36711082       6.33049965       9.36372566      -3.51903677       2.47566438      -5.24679375
C       12.70214939       0.35445020      10.59687710       5.90710068      -1.37070906      -2.94350767
C        5.08072472       9.94897270      11.52723026      -4.27427816       6.08265686       2.17143750
C       12.26727486       0.56758577      12.91010475       7.89477491      -4.42441225       2.32638073
C        6.28207111      11.14450455      14.01626873      -0.40328211       1.18748069      -0.43447950
C       -0.27205479       0.41454557      -0.11499267      -2.42036295       4.37949419       4.00448847
C       -5.68239641      10.15571499       1.09658194      -1.13933897       6.84343052       4.81101370
C        1.93295908       0.83380061       0.89544559       4.03658390       1.59537327       3.19321728
C       -4.97013903      10.51368237      14.14142323       5.22435045       2.12864900      -1.23040462
C        7.52342081      10.23627281      13.63243008      -5.10749626       0.73275197      -4.09618759
C        7.40466547      10.45004940      11.94595814      -0.60134810      -0.99295557       3.66755724
H        5.30200386       2.11350322       0.68128121       2.63317657       0.40123200      -0.13476692
H        6.79527330       2.52520013      14.89789104       0.73380983       0.81356120      -1.05967343
H        7.06112480       1.62540710       1.11225414       0.05906535       0.27329156      -0.15954606
H        5.79859066       5.66400671       1.56926990      -0.04603697      -0.59098393      -0.75470346
H        6.17724800       4.72717953      15.20334435       1.68031216       0.50250030      -3.00611687
H        4.68783808       4.42887020       0.84988576       0.00851082       0.31146196       0.12127230
H        8.28090477       4.74739456       0.91820085      -1.56053710      -1.78591907       2.90618277
H        8.49290943       3.14622021       2.02977395      -1.52446079       1.79853785       0.15977183
H        7.87560368       6.04226160       2.92905474      -0.26484984      -0.79599762       0.84099895
H        9.64482784       4.91763020       4.31869411       1.72454786       1.21630919      -0.52685982
H        9.03234196       3.41885471       4.07346249       0.03006138      -3.31812358      -0.26543963
H        7.58451557       6.71599388       5.19079876       0.27704710      -0.70721859       1.26383436
H        9.07808018       6.35771179       5.96363831       1.63051379       0.45459002       0.31225750
H        7.63913059       6.24190855       6.95083618      -0.67664200      -0.41917136       1.08879507
H        8.26125431       4.11714363       7.58993578      -0.94596761      -0.35078236       0.35974106
H        8.78937531       2.75309992       6.28652811      -0.36483368       2.30032659       1.10535812
H        9.72686672       4.28540230       6.79333830       0.10523954       0.00391939      -0.50561345
H        6.58786821       3.02030754       5.46347570       1.10004306       2.07631063      -0.65903026
H        5.96106768       4.57370996       6.00675726       1.31575143      -0.00645895      -0.54569244
H        5.63425303       5.38669062       3.74941897      -0.25675881       0.35345870       0.25195992
H        4.69565916       3.31326532       2.94563961       2.94468379      -0.23228158       0.60727119
H        6.30210209       2.34710503       3.30860639       0.44515055      -0.46401542       0.47671503
H       -2.23460245       8.05904198      10.50861645      -1.99664021      -0.84713703      -0.27971020
H       -0.98369962       8.94335842      11.43975925      -0.84455568      -0.32933718      -2.32327080
H       -1.06823361       9.06689358       9.58918858       0.36643240       1.44312692      -2.06640506
H       -0.01781543       5.63229799      11.91748524       0.10324450      -0.69590676      -0.33366477
H       -0.47498599       7.04235840      12.72807980      -0.30579963       0.63556761      -0.79587114
H       -1.68866634       6.12477064      11.79838848      -1.86813593      -0.34385973      -0.48948500
H        1.82580245       6.92653990      11.11137390       2.12757611      -3.34079552       2.26112223
H        1.21205640       8.55296135      11.11256409       0.42746085      -0.29018691      -0.13390152
H        2.59235764       7.24238682       9.01587582       2.94359040      -1.31130862      -0.64851326
H        2.54955196       9.58862877       8.33852768       3.47117853       1.59137392      -0.38199285
H        0.85730731       9.88527298       8.92625523       1.82010961      -2.07054758      -1.45567858
H        2.75797892       7.30574608       6.74407101      -0.83940870       2.79677272      -2.00775099